 TITLE      =  "2D FE Unstructured grid data" 
 VARIABLES = "X", "Y"
 ZONE T="P1", F=FEPOINT, N=       10024  E=       19231  ET=TRIANGLE
  1.32970637E+00 -4.91181682E-01
  1.38361709E+00 -4.83636084E-01
  1.64502729E+00 -3.19385995E-01
  1.59234856E+00 -3.56782508E-01
  1.48335746E+00 -3.96752666E-01
  1.51363231E+00 -4.51254859E-01
  1.53532960E+00 -3.82516694E-01
  1.57815399E+00 -4.13586779E-01
  1.42955388E+00 -4.32182541E-01
  1.36597901E+00 -5.53008219E-01
  1.44442029E+00 -5.09884289E-01
  1.37841840E+00 -6.33444482E-01
  1.34761636E+00 -4.29782021E-01
  1.29174709E+00 -3.94774007E-01
  1.24545266E+00 -4.02196361E-01
  1.17481647E+00  4.70996225E-01
  1.15131901E+00  5.72303891E-01
  1.27383352E+00  5.41395535E-01
  1.67215429E+00  1.82387303E-01
  1.70526016E+00  1.74251832E-02
  1.67739241E+00 -4.69802425E-02
  1.67994835E+00 -1.15104008E-01
  1.66736528E+00 -1.91321345E-01
  1.68712275E+00 -3.38268777E-01
  1.63546428E+00 -2.53950217E-01
  1.59285396E+00 -2.97182621E-01
  1.49226128E+00 -3.44686156E-01
  1.59458969E+00 -4.76489702E-01
  1.54594272E+00 -3.26948179E-01
  1.44234237E+00 -3.70137521E-01
  1.44725412E+00 -5.93800399E-01
  1.52392451E+00 -5.40108951E-01
  1.38894404E+00 -3.80472548E-01
  1.27887639E+00 -5.34104329E-01
  1.33670636E+00 -3.70638287E-01
  1.33954382E+00 -7.08641312E-01
  1.27244894E+00 -4.54075508E-01
  1.25390823E+00 -3.62277550E-01
  1.07963035E+00  4.84770036E-01
  1.18196586E+00  3.95003164E-01
  1.11218610E+00  4.00850169E-01
  1.22899292E+00  6.48928583E-01
  1.02500868E+00  5.87578359E-01
  1.25226657E+00  4.28094662E-01
  1.35336590E+00  4.46093097E-01
  9.23331067E-01  6.28080831E-01
  1.46768280E+00  4.20919894E-01
  1.57718842E+00  3.46368584E-01
  1.60322074E+00  2.40305726E-01
  1.68209784E+00  2.77234926E-01
  1.64737199E+00  9.40798324E-02
  1.73624796E+00  1.07662772E-01
  1.63173968E+00  4.52191815E-03
  1.73580443E+00 -6.87270266E-02
  1.62483058E+00 -7.46014622E-02
  1.73498733E+00 -1.66431625E-01
  1.62785792E+00 -1.42300618E-01
  1.70357389E+00 -2.68731395E-01
  1.61149083E+00 -1.98536080E-01
  1.58293389E+00 -2.43868665E-01
  1.64834473E+00 -3.94619033E-01
  1.54746359E+00 -2.77191969E-01
  1.50908699E+00 -2.99206122E-01
  1.47617565E+00 -3.07888886E-01
  1.44830893E+00 -3.26165727E-01
  1.52866826E+00 -6.32616021E-01
  1.40857451E+00 -3.38559876E-01
  1.61000261E+00 -5.67045213E-01
  1.29880735E+00 -6.20308506E-01
  1.36730400E+00 -3.40145565E-01
  1.43970162E+00 -6.85273418E-01
  1.27881174E+00 -8.08194164E-01
  1.29471221E+00 -3.48779405E-01
  1.20863027E+00 -4.96483920E-01
  1.20577142E+00 -4.29207925E-01
  1.20412742E+00 -3.70112431E-01
  1.22664071E+00 -3.31978040E-01
  1.03101655E+00  4.02181884E-01
  1.12668971E+00  6.93706415E-01
  9.86171498E-01  4.73135476E-01
  1.06225467E+00  3.26318222E-01
  9.18417644E-01  5.31275436E-01
  1.09379677E+00  2.72066965E-01
  1.14643640E+00  3.25341753E-01
  1.22623817E+00  3.48106704E-01
  1.32664800E+00  6.51972196E-01
  1.30516067E+00  3.61954926E-01
  9.90648502E-01  7.25038380E-01
  1.42977718E+00  5.60125147E-01
  1.39171899E+00  3.54634691E-01
  8.56652799E-01  7.14351663E-01
  1.47596076E+00  3.19666089E-01
  1.57618965E+00  4.85912057E-01
  1.53446432E+00  2.69155380E-01
  1.69517976E+00  3.95820835E-01
  1.60824939E+00  1.65920953E-01
  1.74654000E+00  1.99518361E-01
  1.59395385E+00  5.80935084E-02
  1.79082588E+00  9.47325916E-03
  1.58989381E+00 -3.17335078E-02
  1.81249707E+00 -1.12853436E-01
  1.59210068E+00 -1.15062340E-01
  1.79682420E+00 -2.40246192E-01
  1.58303120E+00 -1.57484100E-01
  1.56465507E+00 -1.99277939E-01
  1.74346602E+00 -3.64994074E-01
  1.53913288E+00 -2.33573775E-01
  1.50941339E+00 -2.59261856E-01
  1.47893793E+00 -2.76997390E-01
  1.68551072E+00 -4.82322489E-01
 -5.30773750E-01 -1.53428903E-02
  1.38444694E+00 -3.10056914E-01
  1.61321075E+00 -6.60003047E-01
  1.41815891E+00 -3.03211138E-01
  1.44945505E+00 -2.91119142E-01
  1.40883875E+00 -7.94846936E-01
  1.23180872E+00 -7.00175306E-01
  1.19796497E+00 -5.87936786E-01
  1.32948671E+00 -3.28818730E-01
  1.18923987E+00 -1.00661307E+00
  1.20139649E+00 -8.97686371E-01
  1.14719888E+00 -5.17852239E-01
  1.26162302E+00 -3.24900884E-01
  1.15016551E+00 -4.55548618E-01
  1.15484829E+00 -3.96680937E-01
  1.18975748E+00 -3.22595664E-01
  1.21381242E+00 -3.05132920E-01
  9.58062584E-01  3.92483451E-01
  9.91313246E-01  3.36194520E-01
  9.07924303E-01  4.40548136E-01
  1.05412040E+00  2.75708059E-01
  1.20389820E+00  2.80792638E-01
  1.26560431E+00  7.74671725E-01
  1.26960060E+00  2.94794322E-01
  1.14728698E+00  2.53661451E-01
  1.10292146E+00  2.19601730E-01
  8.25711041E-01  5.79202094E-01
  8.44059010E-01  4.78576291E-01
  1.33914246E+00  2.94637282E-01
  1.06988598E+00  1.85602257E-01
  1.09713366E+00  8.41978393E-01
  9.13080849E-01  8.74679100E-01
  7.67181905E-01  9.48807995E-01
  7.49676019E-01  8.09449987E-01
  1.43294358E+00  7.20829630E-01
  1.40936372E+00  2.76514226E-01
  1.47416655E+00  2.41025496E-01
  1.57428246E+00  6.34277758E-01
  1.70719241E+00  5.39419701E-01
  1.53943388E+00  1.90870487E-01
  1.78947351E+00  2.85632954E-01
  1.57368355E+00  1.16115464E-01
  1.84283177E+00  1.34907495E-01
  1.57357884E+00  1.29649546E-02
  3.79763093E-01  1.11240636E+00
  7.79702305E-01  4.94103043E-01
  1.89720005E+00 -2.69267798E-02
  1.56539967E+00 -7.53769031E-02
  1.90317717E+00 -1.85105403E-01
  1.55443396E+00 -1.24263081E-01
  1.54219634E+00 -1.63331034E-01
  1.86769061E+00 -3.39141972E-01
 -5.25654626E-01  2.42978776E-01
  1.52444427E+00 -1.96480025E-01
  1.50198288E+00 -2.23244032E-01
  1.79940389E+00 -4.81292503E-01
 -5.74848523E-01  1.59420489E-01
 -6.08745947E-01  4.24409646E-02
 -4.89372816E-01  6.82845218E-02
 -4.99925786E-01 -8.72076829E-02
 -4.51497340E-01 -1.76709805E-02
 -4.09952341E-01  3.49879250E-02
 -6.06410710E-01 -8.47156652E-02
 -5.38366332E-01 -1.56532838E-01
 -6.08576674E-01 -1.96262273E-01
 -6.22449103E-01 -4.66139563E-01
  1.70630740E+00 -5.97347954E-01
  1.47668110E+00 -2.43842936E-01
  1.45021156E+00 -2.59681171E-01
  1.42280583E+00 -2.71975201E-01
  1.39371752E+00 -2.80557596E-01
  1.53315253E+00 -7.36312021E-01
  1.35463356E+00 -3.11272258E-01
  1.33791899E+00 -9.39601406E-01
  1.15271821E+00 -7.95379229E-01
  1.09788482E+00 -5.70507441E-01
  1.12244150E+00 -6.74391473E-01
  1.29504548E+00 -3.10210095E-01
  1.08167438E+00 -4.79208797E-01
  1.10385936E+00 -4.14441318E-01
  1.15396179E+00 -3.45368026E-01
  1.23780132E+00 -3.06045525E-01
  1.19051541E+00 -2.86167143E-01
  9.38025780E-01  3.36564948E-01
  8.97775444E-01  3.67441480E-01
  1.01033220E+00  2.72809020E-01
  1.24370437E+00  2.38079656E-01
  1.19141596E+00  2.23295868E-01
  1.05164198E+00  2.32271052E-01
  8.46270381E-01  4.01224314E-01
  1.30071729E+00  2.41968211E-01
  1.14643827E+00  2.00574739E-01
  1.04803971E+00  1.58805803E-01
  1.10944387E+00  1.73672907E-01
  1.05753554E+00  5.96616350E-02
  7.35137888E-01  6.63103590E-01
  5.94267527E-01  9.11126601E-01
  1.05082545E+00  1.00916775E+00
  8.74124808E-01  1.05397247E+00
  1.41016220E+00  8.86093537E-01
  1.23134190E+00  9.54918851E-01
  1.41627320E+00  2.09962945E-01
  1.35935643E+00  2.32936547E-01
  1.70670010E+00  6.81302641E-01
  1.46865360E+00  1.73515482E-01
  1.82981151E+00  4.22613476E-01
  1.50986348E+00  1.23015385E-01
  1.92782168E+00  2.68773517E-01
  1.53819143E+00  6.08124849E-02
  4.17715148E-01  9.81242109E-01
  5.27604118E-01  1.09526103E+00
  7.00865415E-01  1.07901753E+00
  7.22413209E-01  5.43823525E-01
  7.88209645E-01  4.25731150E-01
  7.18586672E-01  4.43841396E-01
 -4.96509238E-01  5.60745419E-01
  1.99399540E+00  8.87920494E-02
  1.54901671E+00 -2.59472606E-02
  2.02252665E+00 -1.00797964E-01
  1.52295496E+00 -9.77415839E-02
  2.00472276E+00 -2.88901999E-01
  1.51742714E+00 -1.34746460E-01
 -5.88132473E-01  4.46363081E-01
 -5.06873135E-01  3.36161047E-01
  1.50627253E+00 -1.65976526E-01
  1.94217496E+00 -4.66932804E-01
  1.49009746E+00 -1.92126651E-01
 -6.45941676E-01  2.91715629E-01
 -7.15820695E-01  1.39006019E-01
 -4.64522423E-01  1.69811541E-01
 -4.14893336E-01 -8.86740765E-02
 -3.87457848E-01  1.01923329E-01
 -3.66827023E-01 -1.99467501E-02
 -3.56766449E-01  4.13112037E-02
 -7.37799284E-01 -1.49263704E-02
 -4.60126572E-01 -1.62231936E-01
 -7.23867658E-01 -1.68200200E-01
 -5.18346389E-01 -2.53275129E-01
 -6.57400100E-01 -3.19711971E-01
 -5.11795318E-01 -3.93459446E-01
  1.83732109E+00 -6.24851225E-01
  1.47030119E+00 -2.13393918E-01
  1.42443836E+00 -2.43793547E-01
  1.44779950E+00 -2.30131182E-01
  1.68182196E+00 -7.53179800E-01
  1.39994285E+00 -2.53109497E-01
 -5.32635637E-01 -5.21166504E-01
  1.52192932E+00 -8.75228514E-01
  1.36319222E+00 -2.85695831E-01
  1.32817106E+00 -2.90843505E-01
  8.72333213E-01 -1.23864732E+00
  1.07671059E+00 -1.13718231E+00
  1.28266406E+00 -1.11484648E+00
  1.03277607E+00 -7.57486408E-01
  1.04825519E+00 -9.25332383E-01
  8.97874223E-01 -1.05153064E+00
  1.04977249E+00 -4.12234880E-01
  1.00635035E+00 -4.53506200E-01
  1.01714252E+00 -5.32044588E-01
  1.11251298E+00 -3.65695798E-01
  1.15089620E+00 -2.96549955E-01
  1.22545937E+00 -2.78423966E-01
  1.26235035E+00 -2.89115095E-01
  1.16618194E+00 -2.61039217E-01
  1.19836776E+00 -2.53192668E-01
  8.94387132E-01  2.99629537E-01
  9.51764248E-01  2.88064027E-01
  1.22520831E+00  1.89746616E-01
  1.00195848E+00  2.15478403E-01
  8.45711364E-01  3.35193697E-01
  1.27212950E+00  1.95831571E-01
  1.18255453E+00  1.75935524E-01
  1.03039893E+00  1.85486814E-01
  1.07761830E+00  1.44084997E-01
  1.04503225E+00  1.31182617E-01
  1.06447877E+00  1.12499461E-01
  1.05538648E+00  9.38788976E-02
  1.07028200E+00  6.86692972E-02
  1.05618669E+00  7.68798574E-02
  1.14551107E+00  1.56982689E-01
  6.27941703E-01  7.34769716E-01
  1.36838384E+00  1.05038906E+00
  9.94343696E-01  1.16326506E+00
  1.58499483E+00  7.94279972E-01
  1.32128722E+00  1.92292813E-01
  1.37027247E+00  1.78078336E-01
  1.85052290E+00  5.94004668E-01
  1.41628515E+00  1.53300872E-01
  1.45522092E+00  1.19042792E-01
  1.99520073E+00  4.33050634E-01
  1.48189890E+00  7.51302690E-02
  4.47456416E-01  8.57886075E-01
  6.25500508E-01  1.21736829E+00
  6.26084277E-01  5.94648642E-01
  1.04614135E+00  4.89860031E-02
  1.06029991E+00  4.45863299E-02
  1.05166801E+00  2.49856109E-02
  1.04967221E+00  3.62775578E-02
  2.37288007E-01  1.02450340E+00
  2.71640924E-01  1.19514878E+00
  7.96974501E-01  3.60670784E-01
  7.45365167E-01  3.76776243E-01
  6.48274150E-01  4.88733182E-01
  6.98529802E-01  3.78075284E-01
 -5.14294262E-01  7.22860865E-01
 -3.25550307E-01  7.95228872E-01
 -2.87856115E-01  9.98870418E-01
 -9.27420720E-02  1.00630457E+00
 -3.76623763E-01  6.32958981E-01
  2.09948467E+00  2.34216666E-01
  1.53369465E+00  1.18348354E-02
  6.47622918E-01  4.00909557E-01
  2.15611575E+00  1.54169498E-02
  1.51961903E+00 -5.65896656E-02
  2.16121375E+00 -2.09067141E-01
  1.49063983E+00 -1.13659352E-01
 -6.59784838E-01  6.03375288E-01
 -4.49861251E-01  4.38088789E-01
  1.48664273E+00 -1.42006537E-01
  1.47579061E+00 -1.66242421E-01
  2.11331498E+00 -4.27592810E-01
 -4.35494778E-01  2.56469514E-01
 -7.66880586E-01  4.47015989E-01
 -8.43422748E-01  2.69284000E-01
 -3.36998252E-01 -9.01770998E-02
 -3.76739000E-01 -1.56070522E-01
 -3.74465374E-01  1.88425860E-01
 -3.14179060E-01  7.18831104E-02
 -8.87125770E-01  8.35382758E-02
 -8.88903208E-01 -1.04926596E-01
 -4.14298302E-01 -2.32245794E-01
 -8.47395710E-01 -2.91473265E-01
 -3.07821346E-01  1.74212827E-02
 -4.38609447E-01 -3.11717705E-01
 -7.70187684E-01 -4.69610334E-01
 -2.70840324E-01  4.57197572E-02
  2.01408308E+00 -6.29654819E-01
  1.44373605E+00 -2.04068728E-01
  1.46112761E+00 -1.87140847E-01
  1.86667432E+00 -8.05790632E-01
  1.42123298E+00 -2.16315079E-01
  1.40452737E+00 -2.31631959E-01
 -4.22672174E-01 -4.94463044E-01
 -4.64784172E-01 -6.22848425E-01
 -6.38530071E-01 -6.24955836E-01
  1.68388976E+00 -9.51225876E-01
  1.37305674E+00 -2.58670876E-01
  1.34460525E+00 -2.61981984E-01
 -5.03450518E-01 -7.84152535E-01
 -3.46412563E-01 -8.90059812E-01
 -3.27776240E-01 -1.05985366E+00
 -5.62377362E-02 -1.23744112E+00
 -2.64528632E-02 -1.11765447E+00
  2.95287401E-01 -1.21419738E+00
  4.53145064E-01 -1.31489151E+00
  7.21622130E-01 -1.11260235E+00
  6.56328087E-01 -1.29500615E+00
  1.20586460E+00 -1.26651076E+00
  9.40213070E-01 -8.21573037E-01
  8.94918237E-01 -9.15863867E-01
  1.48167452E+00 -1.05549201E+00
  1.02035288E+00 -6.32237428E-01
  9.56632015E-01 -4.91063807E-01
  1.07548368E+00 -3.78231461E-01
  9.95372201E-01 -3.89196785E-01
  1.11302993E+00 -3.20792473E-01
  1.29405872E+00 -2.77819782E-01
  1.25019449E+00 -2.60538796E-01
  1.13431014E+00 -2.59781291E-01
  1.14911340E+00 -2.36400158E-01
  1.22641365E+00 -2.48304742E-01
  1.17523073E+00 -2.34500011E-01
  1.21101753E+00 -2.34368412E-01
  1.19517899E+00 -2.29583204E-01
  1.05355836E+00  1.71346774E-02
  1.05143740E+00  1.15793928E-02
  1.04594901E+00  6.52865352E-03
  1.04424572E+00  4.49007411E-05
  1.04034605E+00 -3.37264868E-03
  1.03658232E+00 -6.83669302E-03
  1.03211249E+00 -6.21812663E-03
  1.03031608E+00 -9.49620424E-03
  1.02756636E+00 -1.17177059E-02
  8.72832542E-01  2.44931669E-01
  9.17348108E-01  2.47342135E-01
  9.62371317E-01  2.36899359E-01
  8.41033027E-01  2.78558810E-01
  1.25047980E+00  1.55489066E-01
  1.21132484E+00  1.48513548E-01
  9.94246439E-01  1.73453141E-01
  1.01778821E+00  1.47858277E-01
  1.04135207E+00  1.06141760E-01
  1.07547582E+00  8.78825392E-02
  1.09207179E+00  1.11641021E-01
  1.11470236E+00  1.35166405E-01
  1.17571507E+00  1.35783252E-01
  1.03939354E+00  8.57669160E-02
  1.18811549E+00  1.13828790E+00
  1.56850421E+00  9.92151142E-01
  1.29195887E+00  1.55316061E-01
  1.33414449E+00  1.46866923E-01
  1.80638577E+00  8.22598156E-01
  1.37518883E+00  1.30073710E-01
  1.41259660E+00  1.06387157E-01
  1.44175886E+00  8.10608587E-02
  5.11354842E-01  7.64042518E-01
  8.12898965E-01  1.22182342E+00
  5.47787461E-01  6.62409090E-01
  2.04296257E+00  6.42285359E-01
  1.03882731E+00  6.51012708E-02
  1.07310360E+00  5.33677701E-02
  1.06140369E+00  3.13346210E-02
  1.03895758E+00  3.94346316E-02
  4.46924409E-01  1.24584442E+00
  3.19681707E-01  8.69242895E-01
  7.57705202E-01  3.21472059E-01
  5.82493924E-01  5.09878660E-01
  8.01054857E-01  3.04019296E-01
  7.13322902E-01  3.31455063E-01
  5.91185117E-01  4.41009020E-01
  6.52801354E-02  9.80552148E-01
  5.80966511E-02  1.16564602E+00
 -5.05300612E-01  9.35339398E-01
 -1.77269994E-01  8.77760541E-01
 -1.78704675E-01  1.15358072E+00
 -2.58411006E-01  6.59186812E-01
  2.20333357E+00  4.19958034E-01
  1.49686781E+00  2.75884291E-02
  5.92547348E-01  3.83532402E-01
  6.15383762E-01  3.34531828E-01
  6.67650358E-01  3.38047370E-01
  2.30170212E+00  1.69727718E-01
  1.50855316E+00 -1.54409760E-02
  2.33842648E+00 -9.36706801E-02
  1.48845589E+00 -7.99674607E-02
 -7.13419831E-01  8.07022411E-01
 -3.85041182E-01  5.19123170E-01
  1.46878031E+00 -1.25535408E-01
  2.31299222E+00 -3.56728244E-01
 -3.94173490E-01  3.40202048E-01
 -8.74438920E-01  6.35958279E-01
 -3.02975455E-01 -1.47971007E-01
 -9.89062121E-01  4.35620979E-01
 -3.04743715E-01  1.37999997E-01
 -1.08360526E+00 -7.82346784E-03
 -1.05932653E+00  2.17952559E-01
 -3.08436760E-01  2.03625771E-01
 -1.05975095E+00 -2.34694743E-01
 -3.33225553E-01 -2.15707222E-01
 -2.93703398E-01 -3.78554304E-02
 -3.59501277E-01 -2.93607497E-01
 -9.87952259E-01 -4.55496958E-01
 -2.59902551E-01  8.73053418E-02
  2.22647995E+00 -6.07164560E-01
  1.46082194E+00 -1.45094994E-01
  1.44989969E+00 -1.65032027E-01
  2.08232706E+00 -8.33543210E-01
  1.42514863E+00 -1.95651188E-01
  1.43726584E+00 -1.82458076E-01
  1.39633627E+00 -2.13231635E-01
 -1.97468036E-01  1.61773875E-02
 -2.47982612E-01  3.61552026E-03
 -3.35478139E-01 -5.83244468E-01
 -8.67156171E-01 -6.61470499E-01
 -3.88685274E-01 -3.83814701E-01
  1.88788624E+00 -1.02524856E+00
  1.38103335E+00 -2.31758024E-01
 -7.03857952E-01 -8.46264840E-01
 -3.50611972E-01 -7.22638937E-01
 -1.64642407E-01 -9.76982558E-01
 -5.08535660E-01 -9.91691231E-01
 -1.84252835E-01 -1.17556292E+00
  1.46567516E-01 -1.08549352E+00
  8.68526126E-02 -1.25263443E+00
  5.05716253E-01 -1.13023652E+00
  5.48904205E-01 -1.46165835E+00
  1.04339072E+00 -1.32473820E+00
  7.74960550E-01 -9.58990936E-01
  1.40516097E+00 -1.25584973E+00
  9.10757829E-01 -6.91611245E-01
  1.65532116E+00 -1.17065454E+00
  9.39211371E-01 -5.67979847E-01
  9.38006130E-01 -4.19481899E-01
  1.03717954E+00 -3.60288149E-01
  1.07534329E+00 -3.39382656E-01
  1.27287438E+00 -2.64992747E-01
  1.31580078E+00 -2.59095978E-01
  1.35571977E+00 -2.38364473E-01
  1.11009860E+00 -2.80628114E-01
  1.22755794E+00 -2.26267421E-01
  1.24676838E+00 -2.36907407E-01
  1.13738676E+00 -2.14782261E-01
  1.12281933E+00 -2.33160252E-01
  1.15997855E+00 -2.15542116E-01
  1.18378414E+00 -2.11369666E-01
  1.20840186E+00 -2.14496809E-01
  9.52176943E-01 -3.61814151E-01
  8.88849132E-01 -3.16076938E-01
  1.19876304E+00 -1.96815121E-01
  8.92301658E-01 -1.27922055E-01
  8.86869414E-01 -1.21538249E-01
  8.81896884E-01 -1.27790645E-01
  8.74405881E-01 -1.55451834E-01
  9.02271478E-01 -1.14553800E-01
  8.96704495E-01 -1.10737834E-01
  8.93927851E-01 -1.17541088E-01
  1.06102649E+00  2.03014098E-02
  1.05860411E+00  1.17950593E-02
  1.05409551E+00  5.45506962E-03
  1.04481223E+00  1.64377265E-02
  1.04971159E+00 -4.31939552E-05
  1.03944046E+00  2.34851277E-03
  1.04577802E+00 -5.54616340E-03
  1.03521427E+00 -2.07780072E-03
  1.03108087E+00 -1.25036207E-02
  1.03365633E+00 -1.00159278E-02
  1.04085290E+00 -8.40385988E-03
  1.02394511E+00 -1.03094958E-02
  1.02446358E+00 -1.35323883E-02
  1.02687227E+00 -1.48955421E-02
  1.02721444E+00 -7.01419616E-03
  1.02913221E+00 -1.42218208E-02
  9.15464939E-01 -9.37930665E-02
  9.12833120E-01 -1.06748587E-01
  9.07289679E-01 -1.02539829E-01
  9.09958766E-01 -9.67860749E-02
  9.08225610E-01 -1.10269918E-01
  9.01595801E-01 -1.07214518E-01
  8.94596272E-01  2.09300212E-01
  9.30574611E-01  2.05819718E-01
  8.32793408E-01  2.31502218E-01
  9.64628497E-01  1.92814037E-01
  9.88915030E-01  1.45081933E-01
  1.10092724E+00  8.60177090E-02
  1.02131834E+00  1.17721076E-01
  1.14449022E+00  1.20434830E-01
  1.11930736E+00  1.04009742E-01
  1.02271194E+00  9.56664395E-02
  1.43468074E+00  1.25278301E+00
  1.23364308E+00  1.20082810E-01
  1.20064350E+00  1.13194210E-01
  1.26903775E+00  1.22169131E-01
  1.30536596E+00  1.17532589E-01
  1.79304389E+00  1.11548346E+00
  1.37699543E+00  8.79293151E-02
  1.34170404E+00  1.05873107E-01
  1.41062449E+00  6.54111557E-02
  1.04012133E+00  1.36561589E+00
  2.07947161E+00  9.08148097E-01
  1.02194028E+00  7.67305338E-02
  1.08881840E+00  6.52937544E-02
  1.07347672E+00  3.74294889E-02
  1.03123774E+00  4.84065170E-02
  6.38685297E-01  1.41961191E+00
  4.55157724E-01  6.57996186E-01
  3.92289350E-01  7.56248037E-01
  5.15955909E-01  5.60914971E-01
  5.29632319E-01  4.66034095E-01
  1.54284090E-01  8.46206323E-01
  2.42227337E-01  1.40693639E+00
 -4.33122034E-01  1.21553874E+00
 -1.47708714E-01  7.32818120E-01
 -2.38373313E-02  8.47492248E-01
 -1.24293073E-01  1.37028594E+00
  2.30424109E+00  6.57412399E-01
  1.44845496E+00  3.87121904E-02
  8.02021205E-01  2.55783687E-01
  7.65377478E-01  2.72164311E-01
  5.62138709E-01  3.43379417E-01
  6.12048172E-01  2.87238594E-01
  6.44902372E-01  2.92925463E-01
  6.85263210E-01  2.90935278E-01
  7.25773041E-01  2.83700425E-01
  1.46909460E+00 -4.68467478E-03
  2.45671621E+00  3.72035471E-01
  2.53630996E+00  6.57676133E-02
  1.48160422E+00 -4.30844713E-02
 -7.44450251E-01  1.06899793E+00
 -2.73663506E-01  5.37690416E-01
  1.45924925E+00 -1.00551260E-01
  2.54275265E+00 -2.46846254E-01
  5.78839486E-01  2.96374636E-01
 -3.25195904E-01  4.24888035E-01
 -9.73759998E-01  8.76710657E-01
 -3.46030643E-01  2.60420748E-01
 -1.30834267E+00  1.30082138E-01
 -1.25272624E+00  3.96865766E-01
 -1.14159501E+00  6.49091120E-01
 -2.53908499E-01  1.82397316E-01
 -1.30791940E+00 -1.42347975E-01
 -2.63496506E-01 -1.97269412E-01
 -2.69965381E-01 -9.15081978E-02
 -2.83365228E-01 -2.67079666E-01
 -1.25071428E+00 -4.12010321E-01
 -2.36160150E-01  1.30809574E-01
  2.47688176E+00 -5.51739773E-01
  1.44684030E+00 -1.25717872E-01
  2.34142532E+00 -8.35470077E-01
  1.41689383E+00 -1.79815650E-01
  1.40727951E+00 -1.96234571E-01
  1.43750718E+00 -1.45893975E-01
  1.42755266E+00 -1.63824918E-01
 -2.26814068E-01  4.90741656E-02
 -2.06906169E-01 -1.77271450E-02
 -2.36209256E-01 -4.68607864E-02
 -1.60551321E-01  2.17575719E-02
 -2.99400665E-01 -4.56531396E-01
 -1.13610074E+00 -6.69969382E-01
 -2.98585188E-01 -3.49090384E-01
  2.14159634E+00 -1.08496267E+00
 -9.64183716E-01 -9.06370336E-01
 -2.32900445E-01 -6.52338044E-01
 -2.13524530E-01 -7.95047221E-01
 -7.33778592E-01 -1.10805124E+00
 -4.24849928E-01 -1.25480142E+00
  2.43539500E-02 -9.58652522E-01
 -9.28026229E-02 -1.38948494E+00
  3.22358278E-01 -1.02896222E+00
  2.65949708E-01 -1.44748845E+00
  8.41898219E-01 -1.48026757E+00
  6.25865870E-01 -9.78065041E-01
  1.22261091E+00 -1.47294565E+00
  8.12490744E-01 -8.12732933E-01
  1.58073176E+00 -1.42478514E+00
  8.46300801E-01 -5.79063450E-01
  8.81828413E-01 -4.84827029E-01
  1.29004304E+00 -2.51934975E-01
  1.88523037E+00 -1.28670555E+00
  1.33144205E+00 -2.38540833E-01
  1.37662737E+00 -2.08823095E-01
  1.36145613E+00 -2.18132028E-01
  1.07666025E+00 -2.97880476E-01
  1.26782749E+00 -2.45109683E-01
  1.10793023E+00 -2.51656099E-01
  1.22826354E+00 -2.07097583E-01
  1.24522849E+00 -2.16368827E-01
  1.16691107E+00 -1.97353432E-01
  1.14855506E+00 -1.98754283E-01
  1.13009490E+00 -1.95461131E-01
  1.11483853E+00 -2.09522193E-01
  1.03856332E+00 -3.14343461E-01
  9.90015356E-01 -3.29482248E-01
  9.05949146E-01 -3.58331547E-01
  9.32643169E-01 -3.13836561E-01
  1.19560701E+00 -1.82119714E-01
  1.18310188E+00 -1.91056054E-01
  1.21519355E+00 -1.95877883E-01
  8.95798768E-01 -2.81282218E-01
  8.71634131E-01 -2.56633396E-01
  8.67862481E-01 -2.21587136E-01
  8.63004118E-01 -1.93253023E-01
  8.85452187E-01 -1.41668606E-01
  8.72417175E-01 -1.32350798E-01
  8.72629199E-01 -1.73540953E-01
  8.56990048E-01 -1.57084314E-01
  8.67293704E-01 -1.43606983E-01
  8.73371612E-01 -1.23080385E-01
  9.02492882E-01 -1.23328270E-01
  8.79876984E-01 -1.19156760E-01
  8.85472259E-01 -1.14504970E-01
  1.07180551E+00  2.38951342E-02
  1.06870880E+00  1.20884034E-02
  1.06249456E+00  3.64193335E-03
  1.03920851E+00  2.77624692E-02
  1.05620660E+00 -1.27420885E-03
  1.03782504E+00  9.24148550E-03
  1.05192964E+00 -5.84015078E-03
  1.03311649E+00  3.32983212E-03
  1.02978916E+00 -1.92932404E-03
  1.03735508E+00 -1.10297063E-02
  1.02460574E+00 -1.61558602E-02
  1.02247688E+00 -6.84371341E-03
  1.02881630E+00 -1.64430923E-02
  1.03450901E+00 -1.40169749E-02
  1.03128959E+00 -1.55245521E-02
  1.04441125E+00 -1.10409189E-02
  1.02051273E+00 -9.92850212E-03
  1.02159213E+00 -1.27419292E-02
  1.02227046E+00 -1.53102651E-02
  1.02663017E+00 -1.72697106E-02
  9.30346743E-01 -7.34976901E-02
  9.28126281E-01 -7.53636573E-02
  9.26322952E-01 -8.16728844E-02
  9.22289780E-01 -8.00159210E-02
  9.25378022E-01 -7.76114945E-02
  9.28952365E-01 -7.89124425E-02
  9.18808487E-01 -8.23183070E-02
  9.23078860E-01 -8.45731493E-02
  9.15321365E-01 -8.36917178E-02
  9.18671437E-01 -8.76338326E-02
  9.14518284E-01 -1.01172867E-01
  9.08580301E-01 -9.11692555E-02
  9.12218511E-01 -8.67350648E-02
  8.99644788E-01 -1.00157808E-01
  9.03690442E-01 -9.48539771E-02
  9.14790453E-01 -1.12408274E-01
  8.94825910E-01 -1.04479090E-01
  8.90300021E-01 -1.09367839E-01
  9.09821990E-01 -1.17711092E-01
  8.80209060E-01  1.76908782E-01
  9.09129529E-01  1.77852670E-01
  8.58920894E-01  2.03113928E-01
  9.37170717E-01  1.71415782E-01
  9.63266979E-01  1.54685849E-01
  9.97656665E-01  1.23676063E-01
  1.00399612E+00  1.01911121E-01
  1.12192750E+00  7.93920280E-02
  1.14196114E+00  9.12645062E-02
  1.17008298E+00  9.91482532E-02
  1.28229175E+00  9.09187606E-02
  1.25112030E+00  9.27688593E-02
  1.21971795E+00  8.77006062E-02
  1.74413538E+00  1.45576552E+00
  1.31388948E+00  8.28732596E-02
  1.37700516E+00  4.99541523E-02
  1.34550560E+00  6.85861658E-02
  1.32619043E+00  1.61490515E+00
  2.10807247E+00  1.23543322E+00
  1.00867566E+00  8.57181002E-02
  1.10797446E+00  6.77616207E-02
  1.08774932E+00  4.42581461E-02
  1.01919550E+00  5.89506003E-02
  8.79307914E-01  1.71044234E+00
  4.12124784E-01  5.59503736E-01
  4.56198242E-01  4.78732443E-01
  2.68973313E-01  7.39367527E-01
  4.26890907E-01  1.73440175E+00
 -2.31090058E-02  7.23146273E-01
  6.21502065E-02  7.53978342E-01
 -8.91664567E-03  1.69086396E+00
  1.40721868E+00  2.76707751E-02
  2.40247726E+00  9.56974562E-01
  8.01957885E-01  2.18853964E-01
  7.71810135E-01  2.28573648E-01
  5.45274346E-01  3.98884556E-01
  1.43144356E+00 -9.49177039E-04
  2.61991567E+00  6.33950618E-01
  1.44722549E+00 -3.35951977E-02
 -4.07325207E-01  1.57570258E+00
 -7.63107138E-01  1.40016488E+00
 -1.63935809E-01  5.94107629E-01
  2.75461498E+00  2.80554294E-01
  1.45624428E+00 -6.63494440E-02
  2.80433490E+00 -8.75962973E-02
  5.93117741E-01  2.57785420E-01
  6.26276733E-01  2.54635297E-01
  5.29835812E-01  2.95937233E-01
  5.58559994E-01  2.59433651E-01
  6.61262793E-01  2.52329634E-01
  6.98166330E-01  2.47154439E-01
  7.35504005E-01  2.38647327E-01
  5.27940202E-01  2.53504547E-01
 -2.34472858E-01  4.44225107E-01
 -1.06514735E+00  1.18255412E+00
 -2.99714508E-01  3.24747915E-01
 -2.63086680E-01  2.49053939E-01
 -1.56369807E+00  3.19895321E-01
 -1.29861982E+00  9.23826197E-01
 -1.46447256E+00  6.32825525E-01
 -2.39663281E-01 -1.38182767E-01
 -2.18482402E-01 -2.38095442E-01
 -1.56195726E+00 -3.30732196E-01
 -1.59636339E+00 -4.64060699E-03
 -2.03684653E-01  1.63982444E-01
  1.43109045E+00 -1.08000538E-01
  2.76898902E+00 -4.54545998E-01
  2.65057278E+00 -8.04605795E-01
  1.40807980E+00 -1.63287161E-01
  1.42418725E+00 -1.28820794E-01
  1.41645868E+00 -1.47088562E-01
 -1.78493591E-01  5.33723156E-02
 -2.08803325E-01  8.91277360E-02
 -2.13327391E-01 -8.90165466E-02
 -1.88673972E-01 -4.89063096E-02
 -1.66696203E-01 -1.23551186E-02
 -1.48183307E-01  4.25154112E-02
 -1.33748704E-01  2.58519867E-02
 -1.40704346E-01  5.33096885E-03
 -2.32541447E-01 -3.82640355E-01
 -2.26954138E-01 -3.08478486E-01
 -1.45981843E+00 -6.48231251E-01
  2.45332864E+00 -1.12252005E+00
  1.39685936E+00 -1.78145854E-01
 -1.28936946E+00 -9.46396219E-01
 -2.37927463E-01 -5.43892132E-01
 -1.04997166E+00 -1.21337343E+00
 -6.58701441E-02 -8.26513089E-01
 -1.12390627E-01 -6.92736505E-01
 -7.40312737E-01 -1.43668720E+00
 -3.70282684E-01 -1.61155576E+00
  1.86773382E-01 -9.21729093E-01
  4.88450334E-02 -1.72405148E+00
  5.33245034E-01 -1.74279690E+00
  4.72153476E-01 -9.40974229E-01
  1.02129137E+00 -1.78673944E+00
  6.97182468E-01 -8.70445134E-01
  1.45910743E+00 -1.73451753E+00
  7.80229446E-01 -6.70728065E-01
  1.84989060E+00 -1.60211685E+00
  1.30619449E+00 -2.32837158E-01
  1.34279713E+00 -2.20573033E-01
  8.09104841E-01 -5.04435275E-01
  2.18375394E+00 -1.39333197E+00
  1.36287021E+00 -2.03385879E-01
  1.07881317E+00 -2.57997519E-01
  1.26387640E+00 -2.24681679E-01
  1.15630805E+00 -1.84953203E-01
  1.09435056E+00 -2.27478315E-01
  1.28330663E+00 -2.31282806E-01
  1.04512442E+00 -2.74999338E-01
  1.00822476E+00 -2.84768516E-01
  8.68127848E-01 -4.00539670E-01
  9.67566091E-01 -2.83093924E-01
  1.38800684E+00 -1.94744865E-01
  1.19455596E+00 -1.69458974E-01
  1.20705563E+00 -1.85675211E-01
  1.18353636E+00 -1.76240729E-01
  1.24370400E+00 -1.98751613E-01
  1.17057935E+00 -1.81903011E-01
  1.23011261E+00 -1.90708972E-01
  1.14161788E+00 -1.84030992E-01
  1.11140198E+00 -1.86441894E-01
  8.56906354E-01 -3.40028937E-01
  9.29898135E-01 -2.67756113E-01
  8.54127730E-01 -2.87944476E-01
  8.99254001E-01 -2.46082517E-01
  8.36947271E-01 -2.20279085E-01
  8.42470048E-01 -2.46678374E-01
  8.43024039E-01 -1.99818827E-01
  8.84963921E-01 -1.94714084E-01
  8.47147279E-01 -1.76197507E-01
  8.89135985E-01 -1.60632720E-01
  8.53166225E-01 -1.41480403E-01
  8.42668867E-01 -1.48083210E-01
  8.41145533E-01 -1.59928694E-01
  8.67450626E-01 -1.18269885E-01
  8.64990019E-01 -1.24312493E-01
  8.60457322E-01 -1.32490728E-01
  9.02081022E-01 -1.34950749E-01
  8.78094409E-01 -1.11538522E-01
  8.72604149E-01 -1.15375973E-01
  1.07974454E+00  1.50428268E-02
  1.07009526E+00  3.57663727E-03
  1.02833067E+00  3.53125077E-02
  1.07675009E+00  5.94131928E-03
  1.03387660E+00  1.70532894E-02
  1.06173187E+00 -4.04989565E-03
  1.05716310E+00 -7.10676854E-03
  1.02979670E+00  9.22153283E-03
  1.02447595E+00 -2.57330622E-03
  1.03786986E+00 -1.42320219E-02
  1.04065564E+00 -1.26899584E-02
  1.03352311E+00 -1.78406048E-02
  1.03059382E+00 -1.80983685E-02
  1.04894058E+00 -1.03999803E-02
  1.01914606E+00 -7.34986828E-03
  1.01873947E+00 -1.24206067E-02
  1.02057427E+00 -1.69813047E-02
  1.01976326E+00 -1.48494272E-02
  1.02269464E+00 -1.75277771E-02
  1.02470658E+00 -1.83600230E-02
  1.02829082E+00 -1.86347750E-02
  1.04687490E+00 -1.42717473E-02
  9.43679498E-01 -6.35013288E-02
  9.39730616E-01 -6.51977974E-02
  9.38665037E-01 -6.67755033E-02
  9.33743327E-01 -6.92217828E-02
  9.36544488E-01 -6.77428225E-02
  9.30708500E-01 -7.05644960E-02
  9.27769170E-01 -7.19473967E-02
  9.31464636E-01 -7.63798855E-02
  9.21787890E-01 -7.58187265E-02
  9.24881201E-01 -7.37697337E-02
  9.18497911E-01 -7.79035016E-02
  9.24022186E-01 -8.90702921E-02
  9.21753655E-01 -9.28267602E-02
  9.11886835E-01 -8.16811394E-02
  9.15129806E-01 -7.98066297E-02
  9.29888097E-01 -8.22774763E-02
  9.08894442E-01 -8.29614668E-02
  9.06756008E-01 -8.57635756E-02
  8.97169240E-01 -9.37970061E-02
  8.99672463E-01 -9.03463994E-02
  9.18798826E-01 -1.07010109E-01
  9.03294785E-01 -8.86440194E-02
  8.92952067E-01 -9.75413274E-02
  9.16687980E-01 -1.18537631E-01
  8.87286008E-01 -1.01246690E-01
  8.82938488E-01 -1.06952843E-01
  8.52463775E-01  1.68628269E-01
  9.18413454E-01  1.51400235E-01
  8.71730981E-01  1.49659689E-01
  8.94877363E-01  1.52845346E-01
  9.38507049E-01  1.46801011E-01