 TITLE      =  "2D FE Unstructured grid data" 
 VARIABLES = "X", "Y", "Dom"
 ZONE T="P1", F=FEPOINT, N=        2985  E=        5768  ET=TRIANGLE
  8.73272327E-02  8.73225823E-02        0
  9.91264095E+00  8.75865610E-02        2
  8.73590514E-02  9.91241344E+00        1
  5.00130498E+00  5.00096546E+00        3
  4.82707734E+00  5.17853505E+00        3
  5.00274892E+00  5.14369005E+00        3
  4.85744561E+00  5.00238337E+00        3
  5.17952344E+00  5.17412076E+00        3
  4.82248025E+00  4.82741497E+00        3
  5.14524136E+00  5.00030523E+00        3
  5.00058173E+00  4.85838160E+00        3
  5.17831252E+00  4.82622106E+00        3
  4.69397072E+00  5.31806415E+00        3
  4.90686923E+00  5.32614576E+00        3
  4.67615671E+00  5.10300430E+00        3
  5.10364880E+00  5.32388342E+00        3
  4.67381907E+00  4.90679382E+00        3
  5.32749737E+00  5.09606112E+00        3
  4.89968990E+00  4.67708707E+00        3
  5.10046223E+00  4.67672803E+00        3
  4.68224059E+00  4.69472976E+00        3
  5.32712596E+00  4.90371125E+00        3
  5.31913072E+00  5.30638387E+00        3
  5.31771384E+00  4.69351453E+00        3
  4.49644865E+00  5.41156902E+00        3
  4.64012286E+00  5.50354281E+00        3
  4.80971417E+00  5.49566419E+00        3
  4.50393857E+00  5.20792567E+00        3
  5.00630737E+00  5.49661170E+00        3
  4.50287911E+00  5.00590922E+00        3
  5.20894296E+00  5.49548604E+00        3
  4.99989055E+00  4.50322769E+00        0
  4.79348520E+00  4.50492675E+00        0
  4.50399097E+00  4.81007356E+00        3
  4.49652146E+00  4.64173936E+00        0
  5.49700227E+00  4.99970110E+00        3
  5.49641865E+00  5.19191151E+00        3
  5.49565863E+00  4.80755265E+00        3
  5.50485107E+00  5.35936190E+00        3
  5.41334318E+00  5.50238054E+00        3
  5.20621378E+00  4.50446551E+00        3
  4.58857890E+00  4.49897797E+00        0
  5.50295324E+00  4.64047316E+00        3
  5.41089444E+00  4.49817344E+00        3
  4.30554714E+00  5.67406682E+00        3
  4.32147497E+00  5.50358277E+00        3
  4.49411360E+00  5.63028579E+00        3
  4.32657326E+00  5.30526790E+00        3
  4.70789135E+00  5.66098489E+00        3
  4.90537402E+00  5.66736789E+00        3
  4.32953677E+00  5.10463753E+00        3
  5.10548468E+00  5.66980397E+00        3
  4.89765221E+00  4.32956413E+00        0
  4.33225921E+00  4.90531450E+00        3
  4.33940857E+00  4.70914094E+00        0
  5.66681809E+00  5.09719100E+00        3
  5.66632266E+00  4.90188785E+00        3
  5.66181823E+00  5.29167736E+00        3
  5.30720568E+00  5.67230416E+00        3
  5.50735874E+00  5.67595038E+00        3
  5.10194503E+00  4.32938087E+00        0
  4.69449305E+00  4.32916113E+00        0
  5.65975510E+00  4.70752110E+00        3
  5.30495695E+00  4.32863204E+00        3
  4.37165795E+00  4.49876324E+00        0
  4.49646063E+00  4.32816708E+00        0
  5.50277750E+00  4.32736520E+00        3
  4.33101439E+00  4.31856913E+00        0
  5.63282679E+00  5.50297381E+00        3
  5.68012034E+00  5.68861571E+00        3
  5.62755786E+00  4.49776437E+00        3
  5.66808819E+00  4.31763994E+00        2
  4.16851638E+00  5.81063297E+00        3
  4.15323651E+00  5.59742367E+00        3
  4.39071185E+00  5.82642014E+00        3
  4.15376959E+00  5.40145088E+00        3
  4.59764177E+00  5.82928448E+00        3
  4.80191733E+00  5.83766564E+00        3
  4.15556854E+00  5.20244495E+00        3
  5.00295620E+00  5.84168452E+00        3
  4.15801361E+00  5.00237048E+00        3
  4.16286208E+00  4.80216088E+00        0
  5.83914638E+00  4.99934492E+00        3
  5.83740940E+00  5.19788553E+00        3
  5.20408908E+00  5.84376387E+00        3
  5.40533399E+00  5.84479711E+00        3
  4.99978855E+00  4.15638866E+00        0
  4.79694308E+00  4.15704883E+00        0
  5.83585072E+00  4.80050566E+00        3
  5.20255674E+00  4.15671390E+00        0
  4.17360402E+00  4.59975164E+00        0
  4.59598686E+00  4.15957086E+00        0
  5.40333206E+00  4.15893513E+00        3
  4.18203296E+00  4.39886919E+00        0
  5.83049526E+00  5.39916086E+00        3
  5.60559202E+00  5.84281772E+00        3
  5.83036751E+00  5.60143327E+00        3
  5.82379007E+00  5.81839046E+00        3
  5.82551140E+00  4.59869820E+00        2
  5.81708312E+00  4.39794264E+00        2
  5.59819065E+00  4.16680242E+00        2
  4.40095778E+00  4.16764805E+00        0
  4.20834212E+00  4.20220392E+00        0
  5.79076354E+00  4.20129815E+00        2
  4.07679494E+00  6.01070618E+00        3
  3.98157565E+00  5.86459864E+00        3
  3.98706509E+00  5.69435279E+00        3
  4.28491445E+00  6.00431590E+00        3
  3.98364629E+00  5.49871197E+00        3
  4.49344073E+00  6.00711443E+00        3
  4.69816968E+00  6.01051211E+00        3
  3.98299566E+00  5.30054999E+00        3
  4.90059813E+00  6.01391183E+00        3
  3.98392153E+00  5.10082037E+00        3
  3.98643645E+00  4.90011962E+00        0
  6.01266853E+00  5.09924378E+00        2
  5.10193721E+00  6.01589914E+00        3
  5.30337469E+00  6.01668706E+00        3
  4.89853343E+00  3.98406304E+00        0
  5.10106197E+00  3.98391372E+00        0
  6.01198071E+00  4.89892912E+00        2
  3.99160785E+00  4.69802098E+00        0
  4.69601109E+00  3.98625486E+00        0
  5.30345987E+00  3.98581797E+00        0
  3.99967664E+00  4.49355995E+00        0
  6.01038731E+00  5.29951579E+00        2
  5.50567483E+00  6.01584560E+00        3
  6.00752366E+00  5.49984868E+00        3
  6.00537626E+00  5.69793373E+00        3
  5.71165092E+00  6.01181364E+00        3
  6.00749068E+00  4.69715660E+00        2
  5.99953882E+00  4.49276922E+00        2
  5.50619961E+00  3.99186231E+00        2
  4.49310168E+00  3.99253615E+00        0
  4.28435184E+00  4.00835607E+00        0
  4.01395418E+00  4.28256661E+00        0
  5.98525441E+00  4.28175717E+00        2
  5.71486461E+00  4.00755974E+00        2
  6.01319332E+00  5.86894923E+00        3
  5.91906521E+00  6.01559358E+00        3
  4.04241830E+00  4.03970206E+00        0
  5.95691466E+00  4.03893340E+00        2
  3.80900973E+00  6.20181859E+00        1
  3.85413736E+00  6.01094267E+00        1
  3.98433779E+00  6.18781866E+00        1
  4.18713073E+00  6.18461157E+00        3
  3.82201577E+00  5.79540253E+00        1
  3.81440337E+00  5.59801943E+00        1
  4.39210810E+00  6.18392836E+00        3
  4.59636738E+00  6.18539256E+00        3
  3.81139734E+00  5.39953795E+00        1
  4.79895816E+00  6.18721759E+00        3
  3.81072966E+00  5.20006158E+00        1
  3.81152277E+00  4.99968899E+00        1
  5.00042704E+00  6.18867076E+00        3
  5.20160082E+00  6.18941997E+00        3
  4.99984840E+00  3.81096857E+00        0
  3.81383834E+00  4.79820790E+00        0
  4.79752961E+00  3.81194038E+00        0
  6.18701307E+00  4.99915465E+00        2
  5.20211197E+00  3.81170528E+00        0
  3.81811821E+00  4.59482490E+00        0
  6.18651674E+00  5.19976176E+00        2
  5.40327466E+00  6.18937489E+00        3
  6.18446339E+00  5.40004895E+00        2
  6.18095605E+00  5.59976908E+00        3
  5.60624332E+00  6.18851672E+00        3
  6.18536649E+00  4.79767938E+00        2
  6.18127404E+00  4.59427577E+00        2
  5.40522415E+00  3.81468736E+00        0
  4.59429095E+00  3.81513405E+00        0
  4.38808513E+00  3.82158083E+00        0
  3.82473828E+00  4.38775514E+00        0
  6.17465516E+00  4.38714484E+00        2
  5.61132217E+00  3.82097963E+00        2
  6.17383086E+00  5.79814833E+00        3
  5.81025215E+00  6.18867124E+00        3
  3.83182950E+00  4.17384516E+00        0
  6.01284460E+00  6.19103738E+00        3
  4.17508444E+00  3.82935493E+00        0
  3.82047138E+00  3.96405140E+00        0
  6.16764004E+00  4.17321041E+00        2
  5.82435645E+00  3.82867887E+00        2
  6.17933958E+00  3.96341428E+00        2
  6.03404457E+00  3.81787831E+00        2
  6.14250110E+00  6.01408477E+00        3
  6.18854440E+00  6.20430691E+00        3
  6.20638342E+00  3.79150938E+00        2
  3.96571649E+00  3.81858959E+00        0
  3.79405973E+00  3.79230342E+00        0
  3.66468884E+00  6.34018368E+00        1
  3.65378514E+00  6.11244574E+00        1
  3.88822538E+00  6.35920272E+00        1
  3.65245710E+00  5.90432329E+00        1
  4.09024528E+00  6.35982290E+00        3
  4.29315907E+00  6.35968828E+00        3
  3.64400997E+00  5.69992889E+00        1
  4.49611737E+00  6.36018068E+00        3
  3.63977841E+00  5.49963018E+00        1
  4.69829907E+00  6.36108423E+00        3
  3.63804180E+00  5.29984334E+00        1
  3.63775274E+00  5.09973718E+00        1
  4.89961097E+00  6.36192530E+00        3
  5.10048019E+00  6.36246980E+00        3
  3.63850032E+00  4.89897724E+00        0
  4.89904231E+00  3.63799392E+00        0
  5.10074278E+00  3.63791284E+00        0
  3.64034437E+00  4.69709134E+00        0
  6.36120486E+00  5.09968120E+00        2
  5.30145397E+00  6.36263822E+00        3
  6.36023594E+00  5.30014693E+00        2
  6.35789709E+00  5.50055144E+00        2
  5.50300949E+00  6.36245646E+00        3
  6.36091939E+00  4.89876649E+00        2
  6.35924959E+00  4.69679236E+00        2
  5.30282407E+00  3.63905310E+00        0
  4.69689073E+00  3.63929177E+00        0
  4.49336618E+00  3.64196255E+00        0
  3.64336958E+00  4.49332569E+00        0
  6.35623682E+00  4.49294880E+00        2
  5.50625694E+00  3.64158685E+00        0
  6.35338242E+00  5.70155039E+00        3
  5.70527508E+00  6.36226124E+00        3
  3.64665578E+00  4.28707744E+00        0
  5.90776138E+00  6.36234929E+00        3
  4.28766520E+00  3.64513323E+00        0
  3.64644661E+00  4.08051497E+00        0
  6.35299822E+00  4.28665915E+00        2
  5.71194104E+00  3.64464470E+00        2
  6.35351432E+00  4.08008679E+00        2
  5.91813368E+00  3.64423717E+00        2
  6.34496887E+00  5.90640776E+00        3
  6.34400661E+00  6.11442272E+00        3
  6.10987513E+00  6.36139062E+00        3
  6.12094106E+00  3.64064630E+00        2
  6.35746814E+00  3.87741696E+00        2
  4.08168250E+00  3.64488192E+00        0
  3.64332842E+00  3.87800416E+00        0
  6.33413277E+00  6.34139131E+00        3
  3.87960209E+00  3.64163290E+00        0
  3.66007052E+00  3.65827391E+00        0
  6.34230350E+00  3.65680043E+00        2
  3.58894076E+00  6.54979128E+00        1
  3.42576077E+00  6.57984096E+00        1
  3.45372078E+00  6.41476796E+00        1
  3.78787302E+00  6.53364591E+00        3
  3.47107891E+00  6.21356189E+00        1
  3.47232679E+00  6.00624485E+00        1
  3.99239459E+00  6.53365644E+00        3
  4.19474430E+00  6.53395465E+00        3
  3.47024954E+00  5.80216178E+00        1
  4.39675148E+00  6.53437068E+00        3
  3.46713728E+00  5.60039020E+00        1
  4.59833178E+00  6.53488452E+00        3
  3.46526008E+00  5.39998611E+00        1
  3.46450530E+00  5.19987725E+00        1
  4.79935405E+00  6.53535697E+00        3
  4.99996610E+00  6.53568640E+00        3
  3.46450473E+00  4.99956827E+00        1
  4.99994101E+00  3.46445904E+00        0
  3.46512239E+00  4.79872110E+00        0
  5.20047993E+00  6.53584308E+00        3
  6.53487299E+00  5.20003522E+00        2
  6.53375005E+00  5.40045390E+00        2
  5.40121436E+00  6.53583177E+00        3
  6.53514225E+00  4.99955080E+00        2
  6.53464754E+00  4.79860472E+00        2
  5.20110536E+00  3.46473568E+00        0
  4.79875246E+00  3.46483194E+00        0
  4.59699432E+00  3.46586041E+00        0
  3.46638218E+00  4.59695099E+00        0
  6.53340553E+00  4.59676699E+00        2
  5.40280784E+00  3.46567213E+00        0
  6.53150239E+00  5.60128488E+00        2
  5.60237578E+00  6.53571261E+00        3
  3.46805295E+00  4.39397894E+00        0
  5.80400734E+00  6.53558231E+00        3
  4.39429823E+00  3.46729544E+00        0
  3.46920701E+00  4.19024852E+00        0
  6.53175924E+00  4.39376273E+00        2
  5.60546553E+00  3.46700754E+00        0
  6.53083398E+00  4.19006431E+00        2
  5.80883276E+00  3.46770109E+00        2
  6.52810447E+00  5.80344179E+00        3
  6.52596118E+00  6.00754465E+00        3
  6.00634426E+00  6.53535621E+00        3
  6.01211503E+00  3.46695004E+00        2
  6.53155997E+00  3.98681179E+00        2
  4.19101599E+00  3.46817370E+00        0
  3.46927706E+00  3.98694516E+00        0
  6.52771161E+00  6.21407059E+00        3
  6.21165740E+00  6.53486912E+00        3
  3.98819748E+00  3.46791726E+00        0
  3.46951457E+00  3.78335878E+00        0
  6.41255509E+00  6.54931858E+00        3
  3.78496505E+00  3.46788151E+00        0
  3.58971019E+00  3.45499511E+00        0
  3.45673881E+00  3.58796938E+00        0
  3.43333344E+00  3.43166506E+00        0
  6.53331199E+00  3.78296431E+00        2
  6.21680508E+00  3.46573181E+00        2
  6.55025689E+00  3.58589341E+00        2
  6.58019071E+00  3.42427774E+00        2
  6.41590876E+00  3.45057400E+00        2
  6.54680668E+00  6.41332839E+00        3
  6.57831127E+00  6.57587016E+00        3
  3.29870486E+00  6.71393053E+00        1
  3.50429125E+00  6.72105690E+00        1
  3.28264675E+00  6.50317913E+00        1
  3.69665980E+00  6.71318938E+00        3
  3.28883663E+00  6.30636107E+00        1
  3.89537527E+00  6.70862057E+00        3
  3.29362645E+00  6.10498861E+00        1
  3.29428269E+00  5.90248524E+00        1
  4.09644277E+00  6.70789273E+00        3
  4.29765833E+00  6.70808926E+00        3
  3.29325419E+00  5.70089819E+00        1
  4.49869261E+00  6.70844914E+00        3
  3.29204467E+00  5.50021503E+00        1
  3.29132598E+00  5.30000263E+00        1
  4.69940642E+00  6.70875357E+00        3
  4.89982153E+00  6.70895390E+00        3
  3.29108135E+00  5.09986857E+00        1
  3.29119014E+00  4.89955921E+00        1
  5.10008627E+00  6.70905713E+00        3
  6.70831868E+00  5.30020630E+00        2
  5.30038693E+00  6.70907944E+00        3
  6.70872730E+00  5.09992736E+00        2
  6.70869846E+00  4.89953847E+00        2
  5.10026771E+00  3.29111298E+00        0
  4.89967181E+00  3.29113712E+00        0
  4.69890854E+00  3.29146489E+00        0
  3.29162486E+00  4.69885281E+00        1
  6.70828025E+00  4.69878465E+00        2
  5.30100619E+00  3.29139127E+00        0
  6.70735734E+00  5.50065083E+00        2
  5.50087897E+00  6.70903588E+00        3
  3.29236936E+00  4.49756542E+00        0
  5.70165878E+00  6.70896780E+00        3
  4.49774510E+00  3.29204704E+00        0
  3.29322921E+00  4.29572928E+00        0
  6.70754589E+00  4.49748080E+00        2
  5.50213624E+00  3.29191244E+00        0
  6.70681892E+00  4.29570291E+00        2
  5.70369297E+00  3.29238448E+00        0
  6.70585848E+00  5.70159395E+00        3
  6.70458907E+00  5.90323096E+00        3
  5.90283042E+00  6.70901613E+00        3
  5.90546134E+00  3.29230409E+00        2
  6.70669908E+00  4.09392966E+00        2
  4.29619132E+00  3.29265508E+00        0
  3.29389731E+00  4.09374510E+00        0
  6.70526439E+00  6.10508957E+00        3
  6.10455354E+00  6.70974202E+00        3
  4.09458362E+00  3.29299822E+00        0
  3.29422012E+00  3.89227166E+00        0
  6.30538541E+00  6.71360515E+00        3
  3.89347452E+00  3.29299501E+00        0
  3.69521789E+00  3.29153491E+00        0
  3.29297915E+00  3.69377882E+00        0
  6.10722633E+00  3.29110825E+00        2
  6.70796601E+00  3.89287872E+00        2
  6.71306949E+00  3.69479177E+00        2
  6.30752476E+00  3.28682698E+00        2
  6.71080025E+00  6.30437067E+00        3
  6.71963645E+00  6.49687131E+00        3
  6.50211994E+00  6.71889669E+00        3
  3.29348103E+00  3.50385740E+00        0
  6.71286507E+00  6.70256170E+00        3
  3.50533769E+00  3.29200010E+00        0
  3.32013434E+00  3.31877378E+00        0
  6.50359844E+00  3.28154617E+00        2
  6.72113354E+00  3.50324909E+00        2
  6.71400703E+00  3.29826297E+00        2
  3.24656586E+00  6.89693250E+00        1
  3.10579572E+00  6.80757264E+00        1
  3.41194457E+00  6.88721347E+00        1
  3.11368591E+00  6.60510700E+00        1
  3.60340540E+00  6.88571421E+00        3
  3.11459488E+00  6.40296394E+00        1
  3.79939408E+00  6.88321129E+00        3
  3.11721853E+00  6.20258251E+00        1
  3.11876088E+00  6.00170624E+00        1
  3.99838487E+00  6.88188073E+00        3
  4.19862859E+00  6.88168369E+00        3
  3.11890992E+00  5.80082207E+00        1
  3.11847598E+00  5.60029341E+00        1
  4.39914175E+00  6.88186635E+00        3
  3.11804525E+00  5.40006965E+00        1
  4.59957139E+00  6.88207446E+00        3
  4.79983501E+00  6.88220988E+00        3
  3.11781811E+00  5.19998371E+00        1
  3.11777429E+00  4.99988662E+00        1
  4.99997718E+00  6.88227640E+00        3
  5.20008771E+00  6.88229796E+00        3
  6.88207711E+00  5.20005350E+00        2
  6.88217552E+00  4.99989914E+00        2
  4.99998863E+00  3.11777060E+00        0
  4.79970173E+00  3.11784252E+00        0
  3.11788264E+00  4.79965792E+00        1
  6.88208228E+00  4.79964163E+00        2
  5.20026886E+00  3.11782179E+00        0
  6.88173640E+00  5.40024602E+00        2
  5.40025363E+00  6.88228686E+00        3
  3.11815401E+00  4.59918624E+00        1
  5.60054266E+00  6.88225982E+00        3
  4.59927598E+00  3.11803486E+00        0
  3.11858395E+00  4.39841484E+00        0
  6.88181511E+00  4.59916295E+00        2
  5.40067630E+00  3.11798704E+00        0
  6.88144294E+00  4.39844006E+00        2
  5.60127808E+00  3.11819782E+00        0
  6.88112654E+00  5.60061409E+00        2
  6.88046643E+00  5.80120128E+00        3
  5.80100166E+00  6.88230564E+00        3
  5.80203003E+00  3.11825445E+00        0
  6.88118828E+00  4.19766125E+00        2
  4.39865052E+00  3.11831650E+00        0
  3.11912172E+00  4.19742027E+00        0
  6.88040953E+00  6.00169969E+00        3
  6.00164183E+00  6.88272008E+00        3
  4.19789332E+00  3.11862725E+00        0
  3.11974386E+00  3.99645508E+00        0
  6.20221646E+00  6.88415284E+00        3
  3.99720722E+00  3.11898172E+00        0
  3.79703625E+00  3.11960454E+00        0
  3.12059293E+00  3.79605101E+00        0
  6.00280603E+00  3.11779817E+00        2
  6.88148326E+00  3.99732982E+00        2
  6.88300553E+00  3.79850467E+00        2
  6.20330978E+00  3.11628049E+00        2
  6.88188308E+00  6.20101713E+00        3
  6.88470931E+00  6.39731394E+00        3
  6.40233295E+00  6.88652623E+00        3
  3.12337028E+00  3.59650845E+00        0
  6.60411366E+00  6.88746886E+00        3
  6.88631744E+00  6.58918068E+00        3
  3.59762094E+00  3.12225720E+00        0
  3.13421041E+00  3.39297296E+00        0
  6.89567479E+00  6.75519991E+00        3
  6.80589697E+00  6.89606080E+00        3
  6.40329960E+00  3.11397684E+00        2
  6.88564804E+00  3.60284787E+00        2
  6.88719114E+00  3.41170654E+00        2
  6.60519584E+00  3.11342488E+00        2
  6.80755859E+00  3.10578048E+00        2
  6.89690598E+00  3.24652787E+00        2
  3.39408997E+00  3.13309334E+00        0
  3.16004823E+00  3.15905251E+00        0
  2.91977691E+00  7.07400683E+00        1
  3.10396090E+00  7.02511811E+00        1
  2.93362792E+00  6.90230946E+00        1
  3.31297952E+00  7.05186317E+00        1
  2.93834630E+00  6.70335958E+00        1
  3.50619913E+00  7.05568205E+00        1
  2.94144220E+00  6.50227317E+00        1
  2.94311082E+00  6.30135878E+00        1
  3.70205302E+00  7.05596756E+00        3
  2.94432113E+00  6.10087587E+00        1
  3.90009284E+00  7.05546267E+00        3
  4.09952704E+00  7.05520337E+00        3
  2.94484200E+00  5.90048838E+00        1
  2.94485457E+00  5.70021324E+00        1
  4.29956692E+00  7.05523580E+00        3
  2.94469855E+00  5.50007084E+00        1
  4.49974713E+00  7.05535524E+00        3
  4.69989045E+00  7.05544652E+00        3
  2.94457106E+00  5.30001336E+00        1
  2.94451726E+00  5.09998207E+00        1
  4.89996775E+00  7.05549212E+00        3
  5.10000878E+00  7.05550819E+00        3
  7.05545826E+00  5.09999924E+00        2
  4.89994844E+00  2.94451890E+00        0
  2.94452737E+00  4.89992386E+00        1
  7.05546115E+00  4.89992381E+00        2
  7.05536543E+00  5.30006912E+00        2
  5.30005332E+00  7.05550754E+00        3
  5.10004364E+00  2.94451551E+00        0
  2.94460290E+00  4.69978629E+00        1
  5.50013320E+00  7.05549833E+00        3
  4.69982151E+00  2.94456644E+00        0
  2.94476586E+00  4.49952071E+00        1
  7.05538807E+00  4.69978242E+00        2
  5.30016373E+00  2.94455417E+00        0
  7.05524384E+00  4.49954268E+00        2
  5.50034879E+00  2.94462450E+00        0
  7.05515687E+00  5.50019220E+00        2
  7.05486629E+00  5.70038001E+00        2
  5.70027047E+00  7.05551449E+00        3
  5.70060296E+00  2.94466974E+00        0
  7.05507855E+00  4.29925981E+00        2
  4.49961839E+00  2.94466276E+00        0
  2.94504291E+00  4.29910466E+00        0
  7.05468345E+00  5.90049199E+00        3
  5.90048084E+00  7.05568421E+00        3
  4.29932313E+00  2.94481975E+00        0
  2.94548053E+00  4.09855014E+00        0
  6.10073841E+00  7.05627585E+00        3
  4.09893395E+00  2.94509404E+00        0
  2.94626381E+00  3.89786336E+00        0
  5.90090108E+00  2.94453890E+00        2
  7.05504211E+00  4.09916249E+00        2
  7.05534117E+00  3.89975856E+00        2
  6.10119971E+00  2.94398256E+00        2
  7.05489436E+00  6.10007611E+00        3
  7.05542814E+00  6.29837579E+00        3
  6.30100129E+00  7.05751139E+00        3
  3.89842256E+00  2.94570358E+00        0
  2.94803370E+00  3.69675703E+00        0
  6.50145154E+00  7.05934907E+00        3
  7.05507716E+00  6.49474401E+00        3
  3.69745915E+00  2.94733133E+00        0
  2.95206114E+00  3.49365229E+00        0
  7.06795754E+00  7.08651866E+00        3
  7.02257738E+00  6.89969380E+00        3
  6.89857811E+00  7.06941234E+00        3
  6.70150734E+00  7.06307523E+00        3
  7.05079393E+00  6.68899643E+00        3
  6.30153784E+00  2.94285570E+00        2
  7.05589471E+00  3.70182876E+00        2
  7.05563595E+00  3.50611279E+00        2
  6.50232895E+00  2.94133288E+00        2
  7.07399242E+00  2.92001425E+00        2
  7.02508492E+00  3.10408369E+00        2
  6.90228164E+00  2.93376702E+00        2
  6.70334853E+00  2.93837443E+00        2
  7.05182352E+00  3.31301156E+00        2
  3.49443971E+00  2.95127370E+00        0
  3.28609117E+00  2.95657462E+00        0
  2.95740020E+00  3.28526560E+00        0
  3.08353384E+00  2.94540615E+00        0
  2.94624865E+00  3.08269134E+00        0
  2.92239160E+00  2.92152818E+00        0
  2.78977046E+00  7.21782355E+00        1
  2.76744283E+00  7.00148228E+00        1
  3.00484652E+00  7.22224307E+00        1
  3.20539228E+00  7.22041727E+00        1
  2.76672992E+00  6.80232916E+00        1
  3.40513666E+00  7.22598607E+00        1
  2.76833214E+00  6.60179859E+00        1
  3.60272329E+00  7.22805178E+00        3
  2.76977978E+00  6.40101087E+00        1
  2.77070759E+00  6.20049330E+00        1
  3.80097529E+00  7.22852769E+00        3
  4.00014053E+00  7.22855018E+00        3
  2.77120837E+00  6.00023377E+00        1
  4.19989193E+00  7.22856428E+00        3
  2.77137512E+00  5.80010366E+00        1
  2.77136974E+00  5.60003912E+00        1
  4.39989084E+00  7.22862092E+00        3
  4.59994273E+00  7.22867439E+00        3
  2.77132485E+00  5.40001127E+00        1
  2.77129581E+00  5.20000028E+00        1
  4.79997960E+00  7.22870433E+00        3
  4.99999678E+00  7.22871545E+00        3
  2.77128909E+00  4.99998887E+00        1
  7.22870670E+00  4.99999143E+00        2
  7.22869030E+00  5.20001321E+00        2
  5.20000691E+00  7.22871730E+00        3
  4.99999915E+00  2.77128744E+00        0
  2.77130346E+00  4.79995901E+00        1
  5.40002200E+00  7.22871460E+00        3
  4.79996953E+00  2.77129463E+00        0
  2.77134976E+00  4.59988813E+00        1
  7.22869444E+00  4.79995906E+00        2
  5.20002728E+00  2.77129269E+00        0
  7.22865268E+00  4.59989723E+00        2
  5.40007016E+00  2.77130996E+00        0
  7.22863456E+00  5.40004693E+00        2
  7.22853350E+00  5.60009916E+00        2
  5.60005049E+00  7.22871770E+00        3
  5.60013495E+00  2.77132846E+00        0
  7.22858369E+00  4.39981470E+00        2
  4.59991920E+00  2.77131839E+00        0
  2.77145180E+00  4.39974880E+00        1
  7.22841940E+00  5.80011778E+00        2
  5.80009916E+00  7.22877291E+00        3
  4.39982755E+00  2.77137251E+00        0
  2.77165527E+00  4.19950166E+00        0
  6.00017915E+00  7.22899799E+00        3
  4.19965909E+00  2.77149748E+00        0
  2.77206618E+00  3.99905560E+00        0
  5.80022044E+00  2.77130027E+00        0
  7.22851682E+00  4.19979355E+00        2
  7.22850342E+00  4.00004417E+00        2
  6.00033901E+00  2.77111555E+00        2
  7.22835935E+00  5.99993189E+00        3
  7.22830283E+00  6.19926136E+00        3
  6.20030469E+00  7.22956622E+00        3
  3.99931360E+00  2.77180803E+00        0
  2.77293089E+00  3.79815403E+00        0
  6.40044389E+00  7.23063795E+00        3
  7.22774977E+00  6.39794145E+00        3
  3.79851722E+00  2.77256766E+00        0
  2.77462992E+00  3.59622935E+00        0
  7.20482000E+00  7.22336364E+00        3
  7.21823274E+00  7.00345568E+00        3
  6.99332856E+00  7.23684523E+00        3
  7.21899266E+00  6.79861012E+00        3
  6.79847287E+00  7.23499896E+00        3
  6.60022630E+00  7.23245718E+00        3
  7.22541171E+00  6.59658185E+00        3
  6.20055899E+00  2.77063261E+00        2
  7.22848838E+00  3.80091091E+00        2
  7.22801803E+00  3.60271251E+00        2
  6.40103085E+00  2.76975674E+00        2
  7.21786584E+00  2.79020130E+00        2
  7.00148104E+00  2.76771006E+00        2
  7.22223833E+00  3.00510285E+00        2
  6.80231065E+00  2.76687057E+00        2
  7.22039159E+00  3.20552776E+00        2
  6.60178749E+00  2.76838085E+00        2
  7.22595432E+00  3.40519061E+00        2
  3.59669596E+00  2.77416331E+00        0
  3.39333120E+00  2.77637255E+00        0
  2.77694748E+00  3.39275627E+00        0
  3.19097634E+00  2.77684891E+00        0
  2.77754498E+00  3.19028027E+00        0
  2.99682569E+00  2.77857358E+00        0
  2.77939998E+00  2.99599929E+00        0
  2.80813207E+00  2.80721306E+00        0
  2.59320833E+00  7.31358459E+00        1
  2.73767544E+00  7.40584233E+00        1
  2.90750058E+00  7.39681785E+00        1
  2.59881906E+00  7.10814750E+00        1
  3.10412040E+00  7.39723905E+00        1
  2.59618749E+00  6.90345641E+00        1
  3.30306627E+00  7.39869201E+00        1
  2.59610145E+00  6.70190266E+00        1
  3.50209869E+00  7.40057644E+00        3
  2.59681817E+00  6.50098492E+00        1
  2.59747599E+00  6.30042334E+00        1
  3.70105374E+00  7.40146932E+00        3
  3.90037372E+00  7.40175624E+00        3
  2.59787238E+00  6.10015061E+00        1
  4.10006814E+00  7.40183381E+00        3
  2.59804861E+00  5.90004633E+00        1
  2.59809481E+00  5.70001281E+00        1
  4.29998232E+00  7.40187013E+00        3
  4.49997901E+00  7.40189812E+00        3
  2.59809176E+00  5.50000349E+00        1
  2.59808226E+00  5.30000087E+00        1
  4.69999060E+00  7.40191499E+00        3
  4.89999759E+00  7.40192176E+00        3
  2.59807792E+00  5.09999926E+00        1
  7.40192007E+00  5.10000118E+00        2
  5.10000018E+00  7.40192343E+00        3
  2.59807907E+00  4.89999498E+00        1
  5.30000193E+00  7.40192301E+00        3
  2.59808821E+00  4.69998149E+00        1
  4.89999715E+00  2.59807761E+00        0
  7.40192046E+00  4.89999524E+00        2
  5.10000245E+00  2.59807748E+00        0
  7.40191217E+00  4.69998366E+00        2
  5.30000930E+00  2.59808031E+00        0
  7.40190967E+00  5.30000838E+00        2
  7.40188338E+00  5.50002035E+00        2
  5.50000444E+00  7.40192302E+00        3
  5.50001997E+00  2.59808535E+00        0
  7.40189196E+00  4.49996553E+00        2
  4.69998841E+00  2.59808139E+00        0
  2.59811545E+00  4.49994638E+00        1
  7.40183989E+00  5.70002256E+00        2
  5.70000966E+00  7.40193661E+00        3
  4.49996775E+00  2.59809408E+00        0
  2.59818309E+00  4.29986275E+00        1
  5.90002584E+00  7.40200791E+00        3
  4.29991244E+00  2.59813339E+00        0
  2.59833904E+00  4.09966141E+00        0
  5.70003620E+00  2.59808157E+00        0
  7.40186023E+00  4.29996301E+00        2
  7.40182111E+00  4.10004861E+00        2
  5.90007010E+00  2.59803085E+00        2
  7.40178406E+00  5.89996015E+00        2
  7.40168333E+00  6.09973594E+00        2
  6.10006626E+00  7.40222458E+00        3
  4.09975469E+00  2.59824575E+00        0
  2.59868937E+00  3.89918164E+00        0
  6.30011311E+00  7.40269554E+00        3
  7.40135985E+00  6.29931763E+00        2
  3.89933363E+00  2.59853738E+00        0
  2.59940484E+00  3.69812311E+00        0
  7.40401465E+00  7.31545764E+00        3
  7.26017683E+00  7.40880026E+00        3
  7.39572789E+00  7.10959960E+00        3
  7.09106077E+00  7.40237965E+00        3
  7.39663293E+00  6.90297129E+00        3
  6.89649079E+00  7.40459382E+00        3
  7.39836000E+00  6.69987886E+00        3
  6.69910065E+00  7.40440564E+00        3
  7.40039277E+00  6.49901503E+00        3
  6.49998123E+00  7.40348633E+00        3
  6.10016603E+00  2.59785941E+00        2
  7.40174171E+00  3.90036354E+00        2
  7.40145286E+00  3.70106378E+00        2
  6.30042536E+00  2.59748172E+00        2
  7.31374010E+00  2.59394886E+00        2
  7.40596855E+00  2.73833875E+00        2
  7.10820837E+00  2.59928174E+00        2
  7.39686938E+00  2.90792987E+00        2
  6.90346594E+00  2.59643751E+00        2
  7.39724422E+00  3.10435414E+00        2
  7.39867789E+00  3.30317778E+00        2
  6.70189287E+00  2.59621803E+00        2
  6.50097588E+00  2.59686195E+00        2
  7.40055850E+00  3.50214418E+00        2
  3.69835198E+00  2.59917598E+00        0
  3.49651616E+00  2.60029059E+00        0
  2.60062537E+00  3.49618138E+00        0
  3.29410996E+00  2.60195038E+00        0